n0061.mhg 10.0.22
Q-Chem Developer Version! Running on 10.0.22.*
                  Welcome to Q-Chem
     A Quantum Leap Into The Future Of Chemistry


 Q-Chem 5.1, Q-Chem, Inc., Pleasanton, CA (2018)

 Yihan Shao,  Zhengting Gan,  E. Epifanovsky,  A. T. B. Gilbert,  M. Wormit,  
 J. Kussmann,  A. W. Lange,  A. Behn,  Jia Deng,  Xintian Feng,  D. Ghosh,  
 M. Goldey,  P. R. Horn,  L. D. Jacobson,  I. Kaliman,  T. Kus,  A. Landau,  
 Jie Liu,  E. I. Proynov,  R. M. Richard,  R. P. Steele,  E. J. Sundstrom,  
 H. L. Woodcock III,  P. M. Zimmerman,  D. Zuev,  B. Albrecht,  E. Alguire,  
 S. A. Baeppler,  D. Barton,  Z. Benda,  Y. A. Bernard,  E. J. Berquist,  
 K. B. Bravaya,  H. Burton,  D. Casanova,  Chun-Min Chang,  Yunqing Chen,  
 A. Chien,  K. D. Closser,  M. P. Coons,  S. Coriani,  S. Dasgupta,  
 A. L. Dempwolff,  M. Diedenhofen,  Hainam Do,  R. G. Edgar,  Po-Tung Fang,  
 S. Faraji,  S. Fatehi,  Qingguo Feng,  K. D. Fenk,  J. Fosso-Tande,  
 Qinghui Ge,  A. Ghysels,  G. Gidofalvi,  J. Gomes,  J. Gonthier,  A. Gunina,  
 M. W. D. Hanson-Heine,  P. H. P. Harbach,  A. W. Hauser,  J. E. Herr,  
 E. G. Hohenstein,  Z. C. Holden,  Kerwin Hui,  T.-C. Jagau,  Hyunjun Ji,  
 B. Kaduk,  K. Khistyaev,  Jaehoon Kim,  P. Klunzinger,  K. Koh,  
 D. Kosenkov,  L. Koulias,  T. Kowalczyk,  C. M. Krauter,  A. Kunitsa,  
 Ka Un Lao,  A. Laurent,  K. V. Lawler,  Joonho Lee,  D. Lefrancois,  
 S. Lehtola,  D. S. Levine,  Yi-Pei Li,  You-Sheng Lin,  Fenglai Liu,  
 E. Livshits,  A. Luenser,  P. Manohar,  E. Mansoor,  S. F. Manzer,  
 Shan-Ping Mao,  Yuezhi Mao,  N. Mardirossian,  A. V. Marenich,  
 T. Markovich,  L. A. Martinez-Martinez,  S. A. Maurer,  N. J. Mayhall,  
 S. C. McKenzie,  J.-M. Mewes,  A. F. Morrison,  J. W. Mullinax,  K. Nanda,  
 T. S. Nguyen-Beck,  R. Olivares-Amaya,  J. A. Parkhill,  T. M. Perrine,  
 F. Plasser,  P. Pokhilko,  S. Prager,  A. Prociuk,  E. Ramos,  D. R. Rehn,  
 F. Rob,  M. Schneider,  N. Sergueev,  S. M. Sharada,  S. Sharma,  
 D. W. Small,  T. Stauch,  T. Stein,  Yu-Chuan Su,  A. J. W. Thom,  
 A. Tkatchenko,  T. Tsuchimochi,  N. M. Tubman,  L. Vogt,  M. L. Vidal,  
 O. Vydrov,  M. A. Watson,  J. Wenzel,  M. de Wergifosse,  T. A. Wesolowski,  
 A. White,  J. Witte,  A. Yamada,  Jun Yang,  K. Yao,  S. Yeganeh,  
 S. R. Yost,  Zhi-Qiang You,  A. Zech,  Igor Ying Zhang,  Xing Zhang,  
 Yan Zhao,  Ying Zhu,  B. R. Brooks,  G. K. L. Chan,  C. J. Cramer,  
 M. S. Gordon,  W. J. Hehre,  A. Klamt,  M. W. Schmidt,  C. D. Sherrill,  
 D. G. Truhlar,  A. Aspuru-Guzik,  R. Baer,  A. T. Bell,  N. A. Besley,  
 Jeng-Da Chai,  R. A. DiStasio Jr.,  A. Dreuw,  B. D. Dunietz,  
 T. R. Furlani,  Chao-Ping Hsu,  Yousung Jung,  Jing Kong,  D. S. Lambrecht,  
 WanZhen Liang,  C. Ochsenfeld,  V. A. Rassolov,  L. V. Slipchenko,  
 J. E. Subotnik,  T. Van Voorhis,  J. M. Herbert,  A. I. Krylov,  
 P. M. W. Gill,  M. Head-Gordon

 Contributors to earlier versions of Q-Chem not listed above: 
 R. D. Adamson,  B. Austin,  J. Baker,  G. J. O. Beran,  K. Brandhorst,  
 S. T. Brown,  E. F. C. Byrd,  A. K. Chakraborty,  C.-L. Cheng,  
 Siu Hung Chien,  D. M. Chipman,  D. L. Crittenden,  H. Dachsel,  
 R. J. Doerksen,  A. D. Dutoi,  L. Fusti-Molnar,  W. A. Goddard III,  
 A. Golubeva-Zadorozhnaya,  S. R. Gwaltney,  G. Hawkins,  A. Heyden,  
 S. Hirata,  G. Kedziora,  F. J. Keil,  C. Kelley,  Jihan Kim,  R. A. King,  
 R. Z. Khaliullin,  P. P. Korambath,  W. Kurlancheek,  A. M. Lee,  M. S. Lee,  
 S. V. Levchenko,  Ching Yeh Lin,  D. Liotard,  R. C. Lochan,  I. Lotan,  
 P. E. Maslen,  N. Nair,  D. P. O'Neill,  D. Neuhauser,  E. Neuscamman,  
 C. M. Oana,  R. Olson,  B. Peters,  R. Peverati,  P. A. Pieniazek,  
 Y. M. Rhee,  J. Ritchie,  M. A. Rohrdanz,  E. Rosta,  N. J. Russ,  
 H. F. Schaefer III,  N. E. Schultz,  N. Shenvi,  A. C. Simmonett,  A. Sodt,  
 D. Stuck,  K. S. Thanthiriwatte,  V. Vanovschi,  Tao Wang,  A. Warshel,  
 C. F. Williams,  Q. Wu,  X. Xu,  W. Zhang

 Please cite Q-Chem as follows:
 Y. Shao et al., Mol. Phys. 113, 184-215 (2015)
 DOI: 10.1080/00268976.2014.952696

 Q-Chem 5.1.0 for Intel X86 EM64T Linux

 Parts of Q-Chem use Armadillo 8.300.2 (Tropical Shenanigans).
 http://arma.sourceforge.net/

 Q-Chem begins on Thu May 10 17:17:40 2018  

Host: n0061.mhg0
0

     Scratch files written to /scratch/romitchak/CuH-H2_b97m-v.in20180510171729//

Checking the input file for inconsistencies... 	...done.

--------------------------------------------------------------
User input:
--------------------------------------------------------------
$molecule
   0 1
--
	0 1
  Cu    0.0933770   -0.9860703    3.3070100
  H    0.6872119   -0.5609557    1.2582878
--
	0 1
  H    0.2693870   -1.6522544    4.8608284
  H   -0.0992255   -0.9695766    5.0847360

$end

$rem
	jobtype opt
	method b97m-v
	basis gen
	scf_guess fragmo
	! frgm_method stoll
	! frgm_lpcorr rs
	! eda_bsse true
	! diis_separate_errvec 1
$end

$basis
	Cu 1
	def2-tzvp
	****
	H 2
	def2-svp
	****
	H 3
	def2-svp
	****
	H 4
	def2-svp
	****
$end

--------------------------------------------------------------
 ----------------------------------------------------------------
             Standard Nuclear Orientation (Angstroms)
    I     Atom           X                Y                Z
 ----------------------------------------------------------------
    1      Cu     -0.0379564425     0.0151844408     0.0176197604
    2      H      -2.1902116650    -0.1796776943    -0.2282484350
    3      H       1.5772362397    -0.5121568842    -0.0292430384
    4      H       1.7137122565     0.2514857951    -0.2534815773
 ----------------------------------------------------------------
 Molecular Point Group                 C1    NOp =  1
 Largest Abelian Subgroup              C1    NOp =  1
 Nuclear Repulsion Energy =    25.5958375070 hartrees
 There are       16 alpha and       16 beta electrons

 Q-Chem warning in module forms1/BasisType.C, line 1685:

 Setting pure/cartesian flag to 2111 for general basis


 Requested basis set is non-standard
 There are 24 shells and 60 basis functions

 Total QAlloc Memory Limit   2000 MB
 Mega-Array Size       188 MB
 MEM_STATIC part       192 MB
 A cutoff of  1.0D-11 yielded    300 shell pairs
 There are      1912 function pairs (      2404 Cartesian)
 
 -------------------------------------------------------
 OpenMP Integral Computing Module                       
 Release: version 1.0, May 2013, Q-Chem Inc. Pittsburgh 
 -------------------------------------------------------
 Integral Job Info:
 Integral job number is                      11
 Integral operator is                         1
 short-range coefficients                     0
 long-range coefficients              100000000
 Omega coefficients                           0
 if combine SR and LR in K                    0
 Integral screening is                        0
 Integral computing path is                   2
 max size of driver memory is            800000
 size of driver memory is                776718
 size of scratch memory is             29734184
 max col of scratch BK array              10000
 max len of scratch array in speh3          662
 max len of scratch index in speh4           32
 max int batch size is                      520
 min int batch size is                       52
 fixed nKL is                                42
 max L of basis functions is                  3
 order of int derivative is                   0
 number of shells is                         24
 number of basis is                          67
 number of cartesian basis is                67
 number of contracted shell pairs           300
 number of primitive shell pairs           1277
 maxK2 (contraction) of shell pair           64
 max number of K2 of shell pair               1
 max number of CS2 of shell pair             34
 max number of PS2 of shell pair             80
 mem total for path MDJ                  529580
 -------------------------------------------------------
 Smallest overlap matrix eigenvalue = 2.51E-02

 Scale SEOQF with 1.000000e-01/1.000000e+00/1.000000e-01

 Standard Electronic Orientation quadrupole field applied
 Nucleus-field energy     =     0.0000000006 hartrees
Attempting to make child job directory: /scratch/romitchak/CuH-H2_b97m-v.in20180510171729//Frg1/
Attempting to make child job directory: /scratch/romitchak/CuH-H2_b97m-v.in20180510171729//Frg2/
Creating input file /scratch/romitchak/CuH-H2_b97m-v.in20180510171729/Frg1.input
using default PutDataFrgm: nothing
calling putenv with: QCSCRATCH=/scratch/romitchak/CuH-H2_b97m-v.in20180510171729/ 
Spawning Job For Fragment 0
Done Job For Fragment 0
calling putenv with: QCSCRATCH=/scratch/romitchak 
calling putenv with: QCTHREADS=12 
Creating input file /scratch/romitchak/CuH-H2_b97m-v.in20180510171729/Frg2.input
using default PutDataFrgm: nothing
calling putenv with: QCSCRATCH=/scratch/romitchak/CuH-H2_b97m-v.in20180510171729/ 
Spawning Job For Fragment 1
Done Job For Fragment 1
calling putenv with: QCSCRATCH=/scratch/romitchak 
calling putenv with: QCTHREADS=12 
 Serial SCFMI time:   CPU 1.88 s  wall 16.34 s

 -----------------------------------------------------------------------
  General SCF calculation program by
  Eric Jon Sundstrom, Paul Horn, Yuezhi Mao, Dmitri Zuev, Alec White,
  David Stuck, Shaama M.S., Shane Yost, Joonho Lee, David Small,
  Daniel Levine, Susi Lehtola, Hugh Burton, Evgeny Epifanovsky
 -----------------------------------------------------------------------
 Exchange:  B97M-V      Correlation:  B97M-V
 Using SG-2 standard quadrature grid
 Nonlocal Correlation:  VV10 with C = 0.0100 and b = 6.00
 Grid used for NLC:  SG-1 standard quadrature
 using 12 threads for integral computing
 -------------------------------------------------------
 OpenMP Integral computing Module                
 Release: version 1.0, May 2013, Q-Chem Inc. Pittsburgh 
 -------------------------------------------------------
 -------------------------------------------------------
 OpenMP BLAS3 based DFT computing Module                
 Release: version 1.0, May 2013, Q-Chem Inc. Pittsburgh 
 -------------------------------------------------------
 -------------------------------------------------------
 OpenMP BLAS3 based DFT computing Module                
 Release: version 1.0, May 2013, Q-Chem Inc. Pittsburgh 
 -------------------------------------------------------
 -------------------------------------------------------
 OpenMP BLAS3 based DFT computing Module                
 Release: version 1.0, May 2013, Q-Chem Inc. Pittsburgh 
 -------------------------------------------------------
 Nonlocal correlation = 0.135372945511
 A restricted SCF calculation will be
 performed using DIIS
 SCF converges when DIIS error is below 1.0e-08
 ---------------------------------------
  Cycle       Energy         DIIS error
 ---------------------------------------
 Nonlocal correlation = 1.349535003910e-01
    1   -1641.8492395352      5.74e-03  
 Nonlocal correlation = 1.352912411129e-01
    2   -1641.8644382006      1.15e-02  
 Nonlocal correlation = 1.352052374074e-01
    3   -1641.8843745913      4.55e-03  
 Nonlocal correlation = 1.351952434343e-01
    4   -1641.8878215094      6.05e-04  
 Nonlocal correlation = 1.352167659909e-01
    5   -1641.8878866163      1.59e-04  
 Nonlocal correlation = 1.352084522932e-01
    6   -1641.8879027336      1.04e-04  
 Nonlocal correlation = 1.352084603949e-01
    7   -1641.8879149389      2.44e-05  
 Nonlocal correlation = 1.352083828429e-01
    8   -1641.8879151190      1.82e-06  
 Nonlocal correlation = 1.352084263787e-01
    9   -1641.8879151201      1.64e-06  
 Nonlocal correlation = 1.352084271358e-01
   10   -1641.8879151207      7.58e-08  
 Nonlocal correlation = 1.352084267103e-01
   11   -1641.8879151207      2.73e-08  
   12   -1641.8879151207      2.79e-09  Convergence criterion met
 ---------------------------------------
 SCF time:   CPU 108.15s  wall 16.00s 
 SCF   energy in the final basis set =    -1641.8879151207
 
 --------------------------------------------------------------
 
                    Orbital Energies (a.u.)
 --------------------------------------------------------------
 
 Alpha MOs
 -- Occupied --
******* -38.889 -33.949 -33.948 -33.946  -4.356  -2.798  -2.795
 -2.791  -0.515  -0.258  -0.252  -0.249  -0.247  -0.243  -0.203
 -- Virtual --
 -0.065  -0.060   0.034   0.058   0.108   0.134   0.161   0.162
  0.196   0.252   0.295   0.358   0.521   0.582   0.815   0.856
  0.856   0.918   0.942   1.192   1.585   1.629   1.645   1.658
  1.851   1.869   2.025   2.077   2.114   2.341   3.030   3.135
  3.671   3.672   3.687   3.710   3.836   5.796   5.797   5.797
  5.800   5.801   5.807   5.821
 --------------------------------------------------------------
 
          Ground-State Mulliken Net Atomic Charges

     Atom                 Charge (a.u.)
  ----------------------------------------
      1 Cu                   -0.001836
      2 H                    -0.188336
      3 H                     0.089454
      4 H                     0.100718
  ----------------------------------------
  Sum of atomic charges =     0.000000

 -----------------------------------------------------------------
                    Cartesian Multipole Moments
 -----------------------------------------------------------------
    Charge (ESU x 10^10)
                 0.0000
    Dipole Moment (Debye)
         X       4.5169      Y       0.2062      Z       0.2057
       Tot       4.5262
    Quadrupole Moments (Debye-Ang)
        XX     -20.3091     XY      -0.4849     YY     -16.5612
        XZ      -0.6692     YZ      -0.1319     ZZ     -16.9619
    Octopole Moments (Debye-Ang^2)
       XXX      21.0472    XXY       0.7679    XYY       3.6344
       YYY       1.1010    XXZ       0.5515    XYZ      -0.1491
       YYZ       0.4604    XZZ       2.9950    YZZ       0.4591
       ZZZ       1.4550
    Hexadecapole Moments (Debye-Ang^3)
      XXXX    -112.8596   XXXY      -2.0214   XXYY     -20.8373
      XYYY      -1.6086   YYYY     -23.5247   XXXZ      -3.3725
      XXYZ      -0.4573   XYYZ      -0.5856   YYYZ      -0.1166
      XXZZ     -21.8487   XYZZ      -0.3638   YYZZ      -7.7085
      XZZZ      -1.5948   YZZZ      -0.1219   ZZZZ     -22.6155
 -----------------------------------------------------------------
 Calculating analytic gradient of the SCF energy
 Gradient of SCF Energy
            1           2           3           4
    1   0.0401505  -0.0454366  -0.0009980   0.0062841
    2   0.0056594  -0.0050850  -0.0047349   0.0041606
    3   0.0095125  -0.0066651   0.0004748  -0.0033222
 Max gradient component =       4.544E-02
 RMS gradient           =       1.817E-02
 Gradient time:  CPU 19.31 s  wall 3.63 s
 Geometry Optimization Parameters
   NAtoms,    NIC,     NZ,  NCons,   NDum,   NFix, NCnnct, MaxDiis
        4      19       0       0       0       0       0       0


** GEOMETRY OPTIMIZATION IN DELOCALIZED INTERNAL COORDINATES **
   Searching for a Minimum

   Optimization Cycle:   1

                       Coordinates (Angstroms)
     ATOM                X               Y               Z
      1  Cu       -0.0379564425    0.0151844408    0.0176197604
      2  H        -2.1902116650   -0.1796776943   -0.2282484350
      3  H         1.5772362397   -0.5121568842   -0.0292430384
      4  H         1.7137122565    0.2514857951   -0.2534815773
   Point Group: c1    Number of degrees of freedom:     6


   Energy is  -1641.887915121


 Attempting to Generate Delocalized Internal Coordinates

  6 Hessian modes will be used to form the next step
  Hessian Eigenvalues:
     0.011193    0.026726    0.042221    0.096263    0.136286    0.282451

 Minimum Search - Taking Simple RFO Step
 Searching for Lamda that Minimizes Along All modes
 Value Taken    Lamda =  -0.02991826
 Calculated Step too Large.  Step scaled by  0.466565
 Step Taken.  Stepsize is  0.300000

                             Maximum     Tolerance    Cnvgd?
         Gradient           0.036282      0.000300      NO
         Displacement       0.233113      0.001200      NO
         Energy change     *********      0.000001      NO


 New Cartesian Coordinates Obtained by Inverse Iteration

 Displacement from previous Coordinates is:  0.262236
 ----------------------------------------------------------------
             Standard Nuclear Orientation (Angstroms)
    I     Atom           X                Y                Z
 ----------------------------------------------------------------
    1      Cu     -0.0750957617     0.0091586120     0.0069702785
    2      H      -2.0709513013    -0.1736277006    -0.2194478532
    3      H       1.5386965176    -0.5110513724    -0.0293030196
    4      H       1.6701309340     0.2503561184    -0.2515726960
 ----------------------------------------------------------------
 Molecular Point Group                 C1    NOp =  1
 Largest Abelian Subgroup              C1    NOp =  1
 Nuclear Repulsion Energy =    26.2198383705 hartrees
 There are       16 alpha and       16 beta electrons
 Applying Cartesian multipole field
    Component          Value
    ---------          -----
     (2,0,0)        1.00000E-11
     (0,2,0)        2.00000E-10
     (0,0,2)       -3.00000E-11
 Nucleus-field energy     =     0.0000000006 hartrees
 Requested basis set is non-standard
 There are 24 shells and 60 basis functions
 A cutoff of  1.0D-11 yielded    300 shell pairs
 There are      1912 function pairs (      2404 Cartesian)
 Smallest overlap matrix eigenvalue = 2.23E-02
 Read the previous MOs as SCF guess

 -----------------------------------------------------------------------
  General SCF calculation program by
  Eric Jon Sundstrom, Paul Horn, Yuezhi Mao, Dmitri Zuev, Alec White,
  David Stuck, Shaama M.S., Shane Yost, Joonho Lee, David Small,
  Daniel Levine, Susi Lehtola, Hugh Burton, Evgeny Epifanovsky
 -----------------------------------------------------------------------
 Exchange:  B97M-V      Correlation:  B97M-V
 Using SG-2 standard quadrature grid
 Nonlocal Correlation:  VV10 with C = 0.0100 and b = 6.00
 Grid used for NLC:  SG-1 standard quadrature
 using 12 threads for integral computing
 -------------------------------------------------------
 OpenMP Integral computing Module                
 Release: version 1.0, May 2013, Q-Chem Inc. Pittsburgh 
 -------------------------------------------------------
 -------------------------------------------------------
 OpenMP BLAS3 based DFT computing Module                
 Release: version 1.0, May 2013, Q-Chem Inc. Pittsburgh 
 -------------------------------------------------------
 -------------------------------------------------------
 OpenMP BLAS3 based DFT computing Module                
 Release: version 1.0, May 2013, Q-Chem Inc. Pittsburgh 
 -------------------------------------------------------
 -------------------------------------------------------
 OpenMP BLAS3 based DFT computing Module                
 Release: version 1.0, May 2013, Q-Chem Inc. Pittsburgh 
 -------------------------------------------------------
 Nonlocal correlation = 0.135096236534
 A restricted SCF calculation will be
 performed using DIIS
 SCF converges when DIIS error is below 1.0e-08
 ---------------------------------------
  Cycle       Energy         DIIS error
 ---------------------------------------
 Nonlocal correlation = 1.350971342860e-01
    1   -1641.9016350576      7.35e-04  
 Nonlocal correlation = 1.351233175911e-01
    2   -1641.9017648161      8.70e-04  
 Nonlocal correlation = 1.350885970148e-01
    3   -1641.9017374320      1.06e-03  
 Nonlocal correlation = 1.351009543704e-01
    4   -1641.9019088860      1.25e-04  
 Nonlocal correlation = 1.351005172616e-01
    5   -1641.9019256867      2.78e-05  
 Nonlocal correlation = 1.351004365047e-01
    6   -1641.9019260646      9.62e-06  
 Nonlocal correlation = 1.351004021262e-01
    7   -1641.9019260863      3.06e-07  
 Nonlocal correlation = 1.351004046371e-01
    8   -1641.9019260864      5.42e-08  
 Nonlocal correlation = 1.351004061250e-01
    9   -1641.9019260864      2.62e-08  
   10   -1641.9019260864      2.45e-09  Convergence criterion met
 ---------------------------------------
 SCF time:   CPU 89.37s  wall 13.00s 
 SCF   energy in the final basis set =    -1641.9019260864
 
 --------------------------------------------------------------
 
                    Orbital Energies (a.u.)
 --------------------------------------------------------------
 
 Alpha MOs
 -- Occupied --
******* -38.887 -33.947 -33.946 -33.944  -4.353  -2.795  -2.792
 -2.788  -0.514  -0.256  -0.251  -0.247  -0.244  -0.241  -0.208
 -- Virtual --
 -0.058  -0.052   0.035   0.058   0.109   0.135   0.163   0.163
  0.207   0.254   0.302   0.360   0.524   0.564   0.817   0.859
  0.859   0.922   0.970   1.194   1.572   1.634   1.644   1.675
  1.874   1.952   2.042   2.082   2.121   2.337   3.068   3.154
  3.674   3.676   3.694   3.717   3.874   5.799   5.800   5.801
  5.804   5.804   5.811   5.825
 --------------------------------------------------------------
 
          Ground-State Mulliken Net Atomic Charges

     Atom                 Charge (a.u.)
  ----------------------------------------
      1 Cu                   -0.034137
      2 H                    -0.162771
      3 H                     0.091322
      4 H                     0.105586
  ----------------------------------------
  Sum of atomic charges =     0.000000

 -----------------------------------------------------------------
                    Cartesian Multipole Moments
 -----------------------------------------------------------------
    Charge (ESU x 10^10)
                 0.0000
    Dipole Moment (Debye)
         X       4.2605      Y       0.1920      Z       0.1824
       Tot       4.2687
    Quadrupole Moments (Debye-Ang)
        XX     -19.7199     XY      -0.4480     YY     -16.5088
        XZ      -0.6098     YZ      -0.1271     ZZ     -16.9051
    Octopole Moments (Debye-Ang^2)
       XXX      19.6726    XXY       0.7110    XYY       3.7679
       YYY       1.2780    XXZ       0.5332    XYZ      -0.1521
       YYZ       0.5664    XZZ       3.1439    YZZ       0.5158
       ZZZ       1.7733
    Hexadecapole Moments (Debye-Ang^3)
      XXXX    -101.3870   XXXY      -1.5608   XXYY     -19.4131
      XYYY      -1.3803   YYYY     -23.2212   XXXZ      -2.7067
      XXYZ      -0.4007   XYYZ      -0.4902   YYYZ      -0.0880
      XXZZ     -20.3523   XYZZ      -0.2922   YYZZ      -7.6013
      XZZZ      -1.3176   YZZZ      -0.0927   ZZZZ     -22.2776
 -----------------------------------------------------------------
 Calculating analytic gradient of the SCF energy
 Gradient of SCF Energy
            1           2           3           4
    1   0.0399702  -0.0451818  -0.0007284   0.0059399
    2   0.0061385  -0.0054038  -0.0031565   0.0024218
    3   0.0101050  -0.0070459  -0.0000999  -0.0029592
 Max gradient component =       4.518E-02
 RMS gradient           =       1.807E-02
 Gradient time:  CPU 20.50 s  wall 3.79 s
 Geometry Optimization Parameters
   NAtoms,    NIC,     NZ,  NCons,   NDum,   NFix, NCnnct, MaxDiis
        4      19       0       0       0       0       0       0

 Cartesian Hessian Update
 Hessian Updated using BFGS Update


** GEOMETRY OPTIMIZATION IN DELOCALIZED INTERNAL COORDINATES **
   Searching for a Minimum

   Optimization Cycle:   2

                       Coordinates (Angstroms)
     ATOM                X               Y               Z
      1  Cu       -0.0750957617    0.0091586120    0.0069702785
      2  H        -2.0709513013   -0.1736277006   -0.2194478532
      3  H         1.5386965176   -0.5110513724   -0.0293030196
      4  H         1.6701309340    0.2503561184   -0.2515726960
   Point Group: c1    Number of degrees of freedom:     6


   Energy is  -1641.901926086

 Hessian Updated using BFGS Update

  6 Hessian modes will be used to form the next step
  Hessian Eigenvalues:
     0.000529    0.011519    0.029221    0.096280    0.136198    0.315764

 Minimum Search - Taking Simple RFO Step
 Searching for Lamda that Minimizes Along All modes
 Value Taken    Lamda =  -0.04601455
 Calculated Step too Large.  Step scaled by  0.302001
 Step Taken.  Stepsize is  0.300000

                             Maximum     Tolerance    Cnvgd?
         Gradient           0.036277      0.000300      NO
         Displacement       0.233891      0.001200      NO
         Energy change     -0.014011      0.000001      NO


 New Cartesian Coordinates Obtained by Inverse Iteration

 Displacement from previous Coordinates is:  0.262992
 ----------------------------------------------------------------
             Standard Nuclear Orientation (Angstroms)
    I     Atom           X                Y                Z
 ----------------------------------------------------------------
    1      Cu     -0.1116682830     0.0033344424    -0.0042952600
    2      H      -1.9514137420    -0.1676189095    -0.2103974286
    3      H       1.4999906147    -0.5104741471    -0.0292200566
    4      H       1.6258717990     0.2495942716    -0.2494405451
 ----------------------------------------------------------------
 Molecular Point Group                 C1    NOp =  1
 Largest Abelian Subgroup              C1    NOp =  1
 Nuclear Repulsion Energy =    26.9458842050 hartrees
 There are       16 alpha and       16 beta electrons
 Applying Cartesian multipole field
    Component          Value
    ---------          -----
     (2,0,0)        1.00000E-11
     (0,2,0)        2.00000E-10
     (0,0,2)       -3.00000E-11
 Nucleus-field energy     =     0.0000000006 hartrees
 Requested basis set is non-standard
 There are 24 shells and 60 basis functions
 A cutoff of  1.0D-11 yielded    300 shell pairs
 There are      1912 function pairs (      2404 Cartesian)
 Smallest overlap matrix eigenvalue = 1.94E-02
 Read the previous MOs as SCF guess

 -----------------------------------------------------------------------
  General SCF calculation program by
  Eric Jon Sundstrom, Paul Horn, Yuezhi Mao, Dmitri Zuev, Alec White,
  David Stuck, Shaama M.S., Shane Yost, Joonho Lee, David Small,
  Daniel Levine, Susi Lehtola, Hugh Burton, Evgeny Epifanovsky
 -----------------------------------------------------------------------
 Exchange:  B97M-V      Correlation:  B97M-V
 Using SG-2 standard quadrature grid
 Nonlocal Correlation:  VV10 with C = 0.0100 and b = 6.00
 Grid used for NLC:  SG-1 standard quadrature
 using 12 threads for integral computing
 -------------------------------------------------------
 OpenMP Integral computing Module                
 Release: version 1.0, May 2013, Q-Chem Inc. Pittsburgh 
 -------------------------------------------------------
 -------------------------------------------------------
 OpenMP BLAS3 based DFT computing Module                
 Release: version 1.0, May 2013, Q-Chem Inc. Pittsburgh 
 -------------------------------------------------------
 -------------------------------------------------------
 OpenMP BLAS3 based DFT computing Module                
 Release: version 1.0, May 2013, Q-Chem Inc. Pittsburgh 
 -------------------------------------------------------
 -------------------------------------------------------
 OpenMP BLAS3 based DFT computing Module                
 Release: version 1.0, May 2013, Q-Chem Inc. Pittsburgh 
 -------------------------------------------------------
 Nonlocal correlation = 0.134982984547
 A restricted SCF calculation will be
 performed using DIIS
 SCF converges when DIIS error is below 1.0e-08
 ---------------------------------------
  Cycle       Energy         DIIS error
 ---------------------------------------
 Nonlocal correlation = 1.349787934119e-01
    1   -1641.9149091864      9.20e-04  
 Nonlocal correlation = 1.350159437660e-01
    2   -1641.9151674112      9.04e-04  
 Nonlocal correlation = 1.349732676617e-01
    3   -1641.9150073450      1.39e-03  
 Nonlocal correlation = 1.349859491557e-01
    4   -1641.9153111658      1.86e-04  
 Nonlocal correlation = 1.349853525675e-01
    5   -1641.9153288919      3.52e-05  
 Nonlocal correlation = 1.349852881094e-01
    6   -1641.9153295095      1.30e-05  
 Nonlocal correlation = 1.349852575382e-01
    7   -1641.9153295518      3.72e-07  
 Nonlocal correlation = 1.349852586002e-01
    8   -1641.9153295519      7.77e-08  
 Nonlocal correlation = 1.349852604028e-01
    9   -1641.9153295519      3.14e-08  
   10   -1641.9153295519      4.89e-09  Convergence criterion met
 ---------------------------------------
 SCF time:   CPU 88.75s  wall 12.00s 
 SCF   energy in the final basis set =    -1641.9153295519
 
 --------------------------------------------------------------
 
                    Orbital Energies (a.u.)
 --------------------------------------------------------------
 
 Alpha MOs
 -- Occupied --
******* -38.886 -33.946 -33.945 -33.943  -4.351  -2.794  -2.790
 -2.785  -0.514  -0.256  -0.252  -0.245  -0.241  -0.240  -0.211
 -- Virtual --
 -0.055  -0.038   0.037   0.057   0.110   0.137   0.165   0.165
  0.215   0.256   0.308   0.368   0.526   0.550   0.816   0.862
  0.862   0.923   1.010   1.195   1.563   1.639   1.647   1.698
  1.878   2.029   2.083   2.120   2.128   2.300   3.099   3.175
  3.677   3.679   3.701   3.726   3.877   5.802   5.803   5.805
  5.807   5.808   5.815   5.828
 --------------------------------------------------------------
 
          Ground-State Mulliken Net Atomic Charges

     Atom                 Charge (a.u.)
  ----------------------------------------
      1 Cu                   -0.075041
      2 H                    -0.129388
      3 H                     0.093593
      4 H                     0.110836
  ----------------------------------------
  Sum of atomic charges =    -0.000000

 -----------------------------------------------------------------
                    Cartesian Multipole Moments
 -----------------------------------------------------------------
    Charge (ESU x 10^10)
                 0.0000
    Dipole Moment (Debye)
         X       4.0122      Y       0.1775      Z       0.1569
       Tot       4.0191
    Quadrupole Moments (Debye-Ang)
        XX     -19.1792     XY      -0.4142     YY     -16.4594
        XZ      -0.5520     YZ      -0.1229     ZZ     -16.8531
    Octopole Moments (Debye-Ang^2)
       XXX      18.5538    XXY       0.6676    XYY       3.8985
       YYY       1.4423    XXZ       0.5456    XYZ      -0.1542
       YYZ       0.6763    XZZ       3.2864    YZZ       0.5690
       ZZZ       2.1034
    Hexadecapole Moments (Debye-Ang^3)
      XXXX     -91.4677   XXXY      -1.1888   XXYY     -18.1163
      XYYY      -1.1800   YYYY     -22.9863   XXXZ      -2.1658
      XXYZ      -0.3537   XYYZ      -0.4106   YYYZ      -0.0654
      XXZZ     -18.9956   XYZZ      -0.2298   YYZZ      -7.5186
      XZZZ      -1.0874   YZZZ      -0.0694   ZZZZ     -22.0171
 -----------------------------------------------------------------
 Calculating analytic gradient of the SCF energy
 Gradient of SCF Energy
            1           2           3           4
    1   0.0362184  -0.0409941  -0.0006786   0.0054544
    2   0.0062613  -0.0053451  -0.0020439   0.0011277
    3   0.0101578  -0.0069058  -0.0005278  -0.0027242
 Max gradient component =       4.099E-02
 RMS gradient           =       1.647E-02
 Gradient time:  CPU 22.47 s  wall 2.98 s
 Geometry Optimization Parameters
   NAtoms,    NIC,     NZ,  NCons,   NDum,   NFix, NCnnct, MaxDiis
        4      19       0       0       0       0       0       0

 Cartesian Hessian Update
 Hessian Updated using BFGS Update


** GEOMETRY OPTIMIZATION IN DELOCALIZED INTERNAL COORDINATES **
   Searching for a Minimum

   Optimization Cycle:   3

                       Coordinates (Angstroms)
     ATOM                X               Y               Z
      1  Cu       -0.1116682830    0.0033344424   -0.0042952600
      2  H        -1.9514137420   -0.1676189095   -0.2103974286
      3  H         1.4999906147   -0.5104741471   -0.0292200566
      4  H         1.6258717990    0.2495942716   -0.2494405451
   Point Group: c1    Number of degrees of freedom:     6


   Energy is  -1641.915329552

 Hessian Updated using BFGS Update

  6 Hessian modes will be used to form the next step
  Hessian Eigenvalues:
     0.011034    0.013761    0.028573    0.093944    0.135074    0.302325

 Minimum Search - Taking Simple RFO Step
 Searching for Lamda that Minimizes Along All modes
 Value Taken    Lamda =  -0.03581645
 Calculated Step too Large.  Step scaled by  0.352971
 Step Taken.  Stepsize is  0.300000

                             Maximum     Tolerance    Cnvgd?
         Gradient           0.033011      0.000300      NO
         Displacement       0.232962      0.001200      NO
         Energy change     -0.013403      0.000001      NO


 New Cartesian Coordinates Obtained by Inverse Iteration

 Displacement from previous Coordinates is:  0.262862
 ----------------------------------------------------------------
             Standard Nuclear Orientation (Angstroms)
    I     Atom           X                Y                Z
 ----------------------------------------------------------------
    1      Cu     -0.1477481473    -0.0027268041    -0.0168177980
    2      H      -1.8321154804    -0.1614095606    -0.2007991658
    3      H       1.4616239768    -0.5101255446    -0.0288986210
    4      H       1.5810200395     0.2490975666    -0.2468377054
 ----------------------------------------------------------------
 Molecular Point Group                 C1    NOp =  1
 Largest Abelian Subgroup              C1    NOp =  1
 Nuclear Repulsion Energy =    27.7965080876 hartrees
 There are       16 alpha and       16 beta electrons
 Applying Cartesian multipole field
    Component          Value
    ---------          -----
     (2,0,0)        1.00000E-11
     (0,2,0)        2.00000E-10
     (0,0,2)       -3.00000E-11
 Nucleus-field energy     =     0.0000000005 hartrees
 Requested basis set is non-standard
 There are 24 shells and 60 basis functions
 A cutoff of  1.0D-11 yielded    300 shell pairs
 There are      1912 function pairs (      2404 Cartesian)
 Smallest overlap matrix eigenvalue = 1.64E-02
 Read the previous MOs as SCF guess

 -----------------------------------------------------------------------
  General SCF calculation program by
  Eric Jon Sundstrom, Paul Horn, Yuezhi Mao, Dmitri Zuev, Alec White,
  David Stuck, Shaama M.S., Shane Yost, Joonho Lee, David Small,
  Daniel Levine, Susi Lehtola, Hugh Burton, Evgeny Epifanovsky
 -----------------------------------------------------------------------
 Exchange:  B97M-V      Correlation:  B97M-V
 Using SG-2 standard quadrature grid
 Nonlocal Correlation:  VV10 with C = 0.0100 and b = 6.00
 Grid used for NLC:  SG-1 standard quadrature
 using 12 threads for integral computing
 -------------------------------------------------------
 OpenMP Integral computing Module                
 Release: version 1.0, May 2013, Q-Chem Inc. Pittsburgh 
 -------------------------------------------------------
 -------------------------------------------------------
 OpenMP BLAS3 based DFT computing Module                
 Release: version 1.0, May 2013, Q-Chem Inc. Pittsburgh 
 -------------------------------------------------------
 -------------------------------------------------------
 OpenMP BLAS3 based DFT computing Module                
 Release: version 1.0, May 2013, Q-Chem Inc. Pittsburgh 
 -------------------------------------------------------
 -------------------------------------------------------
 OpenMP BLAS3 based DFT computing Module                
 Release: version 1.0, May 2013, Q-Chem Inc. Pittsburgh 
 -------------------------------------------------------
 Nonlocal correlation = 0.134864017394
 A restricted SCF calculation will be
 performed using DIIS
 SCF converges when DIIS error is below 1.0e-08
 ---------------------------------------
  Cycle       Energy         DIIS error
 ---------------------------------------
 Nonlocal correlation = 1.348584138701e-01
    1   -1641.9258890212      1.23e-03  
 Nonlocal correlation = 1.349035431443e-01
    2   -1641.9263884856      9.14e-04  
 Nonlocal correlation = 1.348508173657e-01
    3   -1641.9260439001      1.77e-03  
 Nonlocal correlation = 1.348656087487e-01
    4   -1641.9265233721      3.12e-04  
 Nonlocal correlation = 1.348653040563e-01
    5   -1641.9265539727      3.67e-05  
 Nonlocal correlation = 1.348651838818e-01
    6   -1641.9265545850      1.53e-05  
 Nonlocal correlation = 1.348651621186e-01
    7   -1641.9265546419      5.76e-07  
 Nonlocal correlation = 1.348651623391e-01
    8   -1641.9265546421      1.89e-07  
 Nonlocal correlation = 1.348651643766e-01
    9   -1641.9265546421      3.04e-08  
   10   -1641.9265546421      7.39e-09  Convergence criterion met
 ---------------------------------------
 SCF time:   CPU 86.22s  wall 7.00s 
 SCF   energy in the final basis set =    -1641.9265546421
 
 --------------------------------------------------------------
 
                    Orbital Energies (a.u.)
 --------------------------------------------------------------
 
 Alpha MOs
 -- Occupied --
******* -38.886 -33.945 -33.945 -33.942  -4.350  -2.793  -2.789
 -2.784  -0.514  -0.263  -0.252  -0.244  -0.239  -0.238  -0.212
 -- Virtual --
 -0.054  -0.024   0.039   0.057   0.112   0.138   0.166   0.166
  0.219   0.258   0.313   0.385   0.527   0.545   0.814   0.864
  0.864   0.920   1.055   1.196   1.556   1.642   1.661   1.727
  1.881   2.054   2.080   2.118   2.173   2.356   3.115   3.189
  3.680   3.681   3.706   3.734   3.845   5.804   5.805   5.808
  5.809   5.811   5.823   5.836
 --------------------------------------------------------------
 
          Ground-State Mulliken Net Atomic Charges

     Atom                 Charge (a.u.)
  ----------------------------------------
      1 Cu                   -0.120343
      2 H                    -0.091868
      3 H                     0.096180
      4 H                     0.116031
  ----------------------------------------
  Sum of atomic charges =     0.000000

 -----------------------------------------------------------------
                    Cartesian Multipole Moments
 -----------------------------------------------------------------
    Charge (ESU x 10^10)
                 0.0000
    Dipole Moment (Debye)
         X       3.7857      Y       0.1632      Z       0.1307
       Tot       3.7915
    Quadrupole Moments (Debye-Ang)
        XX     -18.7060     XY      -0.3851     YY     -16.4164
        XZ      -0.4988     YZ      -0.1199     ZZ     -16.8100
    Octopole Moments (Debye-Ang^2)
       XXX      17.7735    XXY       0.6483    XYY       4.0448
       YYY       1.6126    XXZ       0.6081    XYZ      -0.1549
       YYZ       0.8003    XZZ       3.4403    YZZ       0.6249
       ZZZ       2.4754
    Hexadecapole Moments (Debye-Ang^3)
      XXXX     -83.2159   XXXY      -0.9146   XXYY     -16.9659
      XYYY      -1.0116   YYYY     -22.8346   XXXZ      -1.7692
      XXYZ      -0.3176   XYYZ      -0.3513   YYYZ      -0.0500
      XXZZ     -17.8004   XYZZ      -0.1783   YYZZ      -7.4667
      XZZZ      -0.9183   YZZZ      -0.0531   ZZZZ     -21.8571
 -----------------------------------------------------------------
 Calculating analytic gradient of the SCF energy
 Gradient of SCF Energy
            1           2           3           4
    1   0.0262178  -0.0300157  -0.0008915   0.0046894
    2   0.0058178  -0.0047087  -0.0013014   0.0001923
    3   0.0094392  -0.0060603  -0.0008201  -0.0025588
 Max gradient component =       3.002E-02
 RMS gradient           =       1.225E-02
 Gradient time:  CPU 22.78 s  wall 3.02 s
 Geometry Optimization Parameters
   NAtoms,    NIC,     NZ,  NCons,   NDum,   NFix, NCnnct, MaxDiis
        4      19       0       0       0       0       0       0

 Cartesian Hessian Update
 Hessian Updated using BFGS Update


** GEOMETRY OPTIMIZATION IN DELOCALIZED INTERNAL COORDINATES **
   Searching for a Minimum

   Optimization Cycle:   4

                       Coordinates (Angstroms)
     ATOM                X               Y               Z
      1  Cu       -0.1477481473   -0.0027268041   -0.0168177980
      2  H        -1.8321154804   -0.1614095606   -0.2007991658
      3  H         1.4616239768   -0.5101255446   -0.0288986210
      4  H         1.5810200395    0.2490975666   -0.2468377054
   Point Group: c1    Number of degrees of freedom:     6


   Energy is  -1641.926554642

 Hessian Updated using BFGS Update

  6 Hessian modes will be used to form the next step
  Hessian Eigenvalues:
     0.011165    0.026751    0.038642    0.093864    0.135072    0.301957

 Minimum Search - Taking Simple RFO Step
 Searching for Lamda that Minimizes Along All modes
 Value Taken    Lamda =  -0.01800187
 Calculated Step too Large.  Step scaled by  0.516926
 Step Taken.  Stepsize is  0.300000

                             Maximum     Tolerance    Cnvgd?
         Gradient           0.024195      0.000300      NO
         Displacement       0.225081      0.001200      NO
         Energy change     -0.011225      0.000001      NO


 New Cartesian Coordinates Obtained by Inverse Iteration

 Displacement from previous Coordinates is:  0.259158
 ----------------------------------------------------------------
             Standard Nuclear Orientation (Angstroms)
    I     Atom           X                Y                Z
 ----------------------------------------------------------------
    1      Cu     -0.1824658838    -0.0100983475    -0.0341162271
    2      H      -1.7153502984    -0.1543771610    -0.1889827314
    3      H       1.4249598210    -0.5095553023    -0.0279059034
    4      H       1.5356367499     0.2488664682    -0.2423484284
 ----------------------------------------------------------------
 Molecular Point Group                 C1    NOp =  1
 Largest Abelian Subgroup              C1    NOp =  1
 Nuclear Repulsion Energy =    28.7973247004 hartrees
 There are       16 alpha and       16 beta electrons
 Applying Cartesian multipole field
    Component          Value
    ---------          -----
     (2,0,0)        1.00000E-11
     (0,2,0)        2.00000E-10
     (0,0,2)       -3.00000E-11
 Nucleus-field energy     =     0.0000000005 hartrees
 Requested basis set is non-standard
 There are 24 shells and 60 basis functions
 A cutoff of  1.0D-11 yielded    300 shell pairs
 There are      1912 function pairs (      2404 Cartesian)
 Smallest overlap matrix eigenvalue = 1.32E-02
 Read the previous MOs as SCF guess

 -----------------------------------------------------------------------
  General SCF calculation program by
  Eric Jon Sundstrom, Paul Horn, Yuezhi Mao, Dmitri Zuev, Alec White,
  David Stuck, Shaama M.S., Shane Yost, Joonho Lee, David Small,
  Daniel Levine, Susi Lehtola, Hugh Burton, Evgeny Epifanovsky
 -----------------------------------------------------------------------
 Exchange:  B97M-V      Correlation:  B97M-V
 Using SG-2 standard quadrature grid
 Nonlocal Correlation:  VV10 with C = 0.0100 and b = 6.00
 Grid used for NLC:  SG-1 standard quadrature
 using 12 threads for integral computing
 -------------------------------------------------------
 OpenMP Integral computing Module                
 Release: version 1.0, May 2013, Q-Chem Inc. Pittsburgh 
 -------------------------------------------------------
 -------------------------------------------------------
 OpenMP BLAS3 based DFT computing Module                
 Release: version 1.0, May 2013, Q-Chem Inc. Pittsburgh 
 -------------------------------------------------------
 -------------------------------------------------------
 OpenMP BLAS3 based DFT computing Module                
 Release: version 1.0, May 2013, Q-Chem Inc. Pittsburgh 
 -------------------------------------------------------
 -------------------------------------------------------
 OpenMP BLAS3 based DFT computing Module                
 Release: version 1.0, May 2013, Q-Chem Inc. Pittsburgh 
 -------------------------------------------------------
 Nonlocal correlation = 0.134741924681
 A restricted SCF calculation will be
 performed using DIIS
 SCF converges when DIIS error is below 1.0e-08
 ---------------------------------------
  Cycle       Energy         DIIS error
 ---------------------------------------
 Nonlocal correlation = 1.347405084149e-01
    1   -1641.9318651673      1.62e-03  
 Nonlocal correlation = 1.347817510485e-01
    2   -1641.9327505585      8.82e-04  
 Nonlocal correlation = 1.347253846239e-01
    3   -1641.9323775339      1.85e-03  
 Nonlocal correlation = 1.347437800110e-01
    4   -1641.9328642177      4.84e-04  
 Nonlocal correlation = 1.347440104863e-01
    5   -1641.9329233233      3.76e-05  
 Nonlocal correlation = 1.347437795738e-01
    6   -1641.9329238540      1.66e-05  
 Nonlocal correlation = 1.347437590886e-01
    7   -1641.9329239167      8.62e-07  
 Nonlocal correlation = 1.347437633601e-01
    8   -1641.9329239170      4.42e-07  
 Nonlocal correlation = 1.347437653072e-01
    9   -1641.9329239171      3.16e-08  
   10   -1641.9329239171      8.64e-09  Convergence criterion met
 ---------------------------------------
 SCF time:   CPU 85.24s  wall 7.00s 
 SCF   energy in the final basis set =    -1641.9329239171
 
 --------------------------------------------------------------
 
                    Orbital Energies (a.u.)
 --------------------------------------------------------------
 
 Alpha MOs
 -- Occupied --
******* -38.887 -33.947 -33.946 -33.943  -4.351  -2.795  -2.788
 -2.784  -0.514  -0.277  -0.254  -0.246  -0.238  -0.238  -0.210
 -- Virtual --
 -0.052  -0.010   0.041   0.056   0.113   0.140   0.167   0.167
  0.219   0.261   0.315   0.408   0.528   0.552   0.810   0.866
  0.866   0.917   1.093   1.201   1.555   1.647   1.682   1.754
  1.884   2.043   2.081   2.085   2.152   2.563   3.121   3.191
  3.681   3.683   3.707   3.736   3.837   5.805   5.806   5.810
  5.811   5.813   5.827   5.872
 --------------------------------------------------------------
 
          Ground-State Mulliken Net Atomic Charges

     Atom                 Charge (a.u.)
  ----------------------------------------
      1 Cu                   -0.160737
      2 H                    -0.060152
      3 H                     0.099377
      4 H                     0.121512
  ----------------------------------------
  Sum of atomic charges =    -0.000000

 -----------------------------------------------------------------
                    Cartesian Multipole Moments
 -----------------------------------------------------------------
    Charge (ESU x 10^10)
                 0.0000
    Dipole Moment (Debye)
         X       3.5997      Y       0.1489      Z       0.1032
       Tot       3.6042
    Quadrupole Moments (Debye-Ang)
        XX     -18.3153     XY      -0.3641     YY     -16.3860
        XZ      -0.4556     YZ      -0.1188     ZZ     -16.7835
    Octopole Moments (Debye-Ang^2)
       XXX      17.3816    XXY       0.6719    XYY       4.2202
       YYY       1.8325    XXZ       0.7865    XYZ      -0.1529
       YYZ       0.9846    XZZ       3.6172    YZZ       0.6978
       ZZZ       3.0269
    Hexadecapole Moments (Debye-Ang^3)
      XXXX     -76.6754   XXXY      -0.7614   XXYY     -15.9810
      XYYY      -0.8863   YYYY     -22.7944   XXXZ      -1.5738
      XXYZ      -0.2953   XYYZ      -0.3267   YYYZ      -0.0463
      XXZZ     -16.7945   XYZZ      -0.1423   YYZZ      -7.4586
      XZZZ      -0.8547   YZZZ      -0.0482   ZZZZ     -21.8482
 -----------------------------------------------------------------
 Calculating analytic gradient of the SCF energy
 Gradient of SCF Energy
            1           2           3           4
    1   0.0054100  -0.0074536  -0.0013683   0.0034119
    2   0.0043171  -0.0030135  -0.0006389  -0.0006646
    3   0.0071924  -0.0039147  -0.0010049  -0.0022728
 Max gradient component =       7.454E-03
 RMS gradient           =       4.084E-03
 Gradient time:  CPU 20.57 s  wall 2.89 s
 Geometry Optimization Parameters
   NAtoms,    NIC,     NZ,  NCons,   NDum,   NFix, NCnnct, MaxDiis
        4      19       0       0       0       0       0       0

 Cartesian Hessian Update
 Hessian Updated using BFGS Update


** GEOMETRY OPTIMIZATION IN DELOCALIZED INTERNAL COORDINATES **
   Searching for a Minimum

   Optimization Cycle:   5

                       Coordinates (Angstroms)
     ATOM                X               Y               Z
      1  Cu       -0.1824658838   -0.0100983475   -0.0341162271
      2  H        -1.7153502984   -0.1543771610   -0.1889827314
      3  H         1.4249598210   -0.5095553023   -0.0279059034
      4  H         1.5356367499    0.2488664682   -0.2423484284
   Point Group: c1    Number of degrees of freedom:     6


   Energy is  -1641.932923917

 Hessian Updated using BFGS Update

  6 Hessian modes will be used to form the next step
  Hessian Eigenvalues:
     0.011162    0.027292    0.079090    0.093954    0.135400    0.301757

 Minimum Search - Taking Simple RFO Step
 Searching for Lamda that Minimizes Along All modes
 Value Taken    Lamda =  -0.00146008
 Step Taken.  Stepsize is  0.195847

                             Maximum     Tolerance    Cnvgd?
         Gradient           0.006096      0.000300      NO
         Displacement       0.109060      0.001200      NO
         Energy change     -0.006369      0.000001      NO


 New Cartesian Coordinates Obtained by Inverse Iteration

 Displacement from previous Coordinates is:  0.112513
 ----------------------------------------------------------------
             Standard Nuclear Orientation (Angstroms)
    I     Atom           X                Y                Z
 ----------------------------------------------------------------
    1      Cu     -0.1931946749    -0.0203445413    -0.0576319119
    2      H      -1.6719657469    -0.1470255045    -0.1759864819
    3      H       1.4142184849    -0.5075832926    -0.0249936138
    4      H       1.5137223255     0.2497889957    -0.2347412827
 ----------------------------------------------------------------
 Molecular Point Group                 C1    NOp =  1
 Largest Abelian Subgroup              C1    NOp =  1
 Nuclear Repulsion Energy =    29.2786132084 hartrees
 There are       16 alpha and       16 beta electrons
 Applying Cartesian multipole field
    Component          Value
    ---------          -----
     (2,0,0)        1.00000E-11
     (0,2,0)        2.00000E-10
     (0,0,2)       -3.00000E-11
 Nucleus-field energy     =     0.0000000005 hartrees
 Requested basis set is non-standard
 There are 24 shells and 60 basis functions
 A cutoff of  1.0D-11 yielded    300 shell pairs
 There are      1912 function pairs (      2404 Cartesian)
 Smallest overlap matrix eigenvalue = 1.13E-02
 Read the previous MOs as SCF guess

 -----------------------------------------------------------------------
  General SCF calculation program by
  Eric Jon Sundstrom, Paul Horn, Yuezhi Mao, Dmitri Zuev, Alec White,
  David Stuck, Shaama M.S., Shane Yost, Joonho Lee, David Small,
  Daniel Levine, Susi Lehtola, Hugh Burton, Evgeny Epifanovsky
 -----------------------------------------------------------------------
 Exchange:  B97M-V      Correlation:  B97M-V
 Using SG-2 standard quadrature grid
 Nonlocal Correlation:  VV10 with C = 0.0100 and b = 6.00
 Grid used for NLC:  SG-1 standard quadrature
 using 12 threads for integral computing
 -------------------------------------------------------
 OpenMP Integral computing Module                
 Release: version 1.0, May 2013, Q-Chem Inc. Pittsburgh 
 -------------------------------------------------------
 -------------------------------------------------------
 OpenMP BLAS3 based DFT computing Module                
 Release: version 1.0, May 2013, Q-Chem Inc. Pittsburgh 
 -------------------------------------------------------
 -------------------------------------------------------
 OpenMP BLAS3 based DFT computing Module                
 Release: version 1.0, May 2013, Q-Chem Inc. Pittsburgh 
 -------------------------------------------------------
 -------------------------------------------------------
 OpenMP BLAS3 based DFT computing Module                
 Release: version 1.0, May 2013, Q-Chem Inc. Pittsburgh 
 -------------------------------------------------------
 Nonlocal correlation = 0.134690799335
 A restricted SCF calculation will be
 performed using DIIS
 SCF converges when DIIS error is below 1.0e-08
 ---------------------------------------
  Cycle       Energy         DIIS error
 ---------------------------------------
 Nonlocal correlation = 1.346950516314e-01
    1   -1641.9333087348      8.31e-04  
 Nonlocal correlation = 1.347048226049e-01
    2   -1641.9335481307      2.74e-04  
 Nonlocal correlation = 1.346863564750e-01
    3   -1641.9335089239      6.06e-04  
 Nonlocal correlation = 1.346939350697e-01
    4   -1641.9335578863      2.17e-04  
 Nonlocal correlation = 1.346941262439e-01
    5   -1641.9335686208      1.33e-05  
 Nonlocal correlation = 1.346940532359e-01
    6   -1641.9335686856      6.52e-06  
 Nonlocal correlation = 1.346940175422e-01
    7   -1641.9335686954      8.83e-07  
 Nonlocal correlation = 1.346940229756e-01
    8   -1641.9335686957      2.98e-07  
 Nonlocal correlation = 1.346940237779e-01
    9   -1641.9335686957      1.71e-08  
   10   -1641.9335686957      4.06e-09  Convergence criterion met
 ---------------------------------------
 SCF time:   CPU 83.21s  wall 8.00s 
 SCF   energy in the final basis set =    -1641.9335686957
 
 --------------------------------------------------------------
 
                    Orbital Energies (a.u.)
 --------------------------------------------------------------
 
 Alpha MOs
 -- Occupied --
******* -38.888 -33.948 -33.947 -33.944  -4.352  -2.797  -2.789
 -2.785  -0.516  -0.284  -0.255  -0.247  -0.238  -0.238  -0.210
 -- Virtual --
 -0.052  -0.003   0.042   0.054   0.113   0.141   0.168   0.168
  0.219   0.263   0.316   0.419   0.529   0.559   0.807   0.866
  0.866   0.917   1.110   1.199   1.560   1.656   1.692   1.757
  1.886   2.031   2.075   2.100   2.153   2.646   3.140   3.200
  3.681   3.682   3.704   3.735   3.852   5.804   5.805   5.810
  5.811   5.814   5.828   5.895
 --------------------------------------------------------------
 
          Ground-State Mulliken Net Atomic Charges

     Atom                 Charge (a.u.)
  ----------------------------------------
      1 Cu                   -0.188120
      2 H                    -0.041785
      3 H                     0.102988
      4 H                     0.126916
  ----------------------------------------
  Sum of atomic charges =     0.000000

 -----------------------------------------------------------------
                    Cartesian Multipole Moments
 -----------------------------------------------------------------
    Charge (ESU x 10^10)
                -0.0000
    Dipole Moment (Debye)
         X       3.5469      Y       0.1307      Z       0.0758
       Tot       3.5502
    Quadrupole Moments (Debye-Ang)
        XX     -18.1762     XY      -0.3605     YY     -16.3844
        XZ      -0.4436     YZ      -0.1209     ZZ     -16.7851
    Octopole Moments (Debye-Ang^2)
       XXX      17.2780    XXY       0.7810    XYY       4.2834
       YYY       2.1787    XXZ       1.1343    XYZ      -0.1483
       YYZ       1.2606    XZZ       3.6747    YZZ       0.8116
       ZZZ       3.8500
    Hexadecapole Moments (Debye-Ang^3)
      XXXX     -74.4137   XXXY      -0.8037   XXYY     -15.6561
      XYYY      -0.8861   YYYY     -22.8770   XXXZ      -1.6991
      XXYZ      -0.3002   XYYZ      -0.3692   YYYZ      -0.0704
      XXZZ     -16.4992   XYZZ      -0.1501   YYZZ      -7.5044
      XZZZ      -0.9940   YZZZ      -0.0700   ZZZZ     -22.0408
 -----------------------------------------------------------------
 Calculating analytic gradient of the SCF energy
 Gradient of SCF Energy
            1           2           3           4
    1  -0.0069464   0.0061040  -0.0014369   0.0022793
    2   0.0030760  -0.0017944   0.0009156  -0.0021973
    3   0.0048492  -0.0021979  -0.0012126  -0.0014386
 Max gradient component =       6.946E-03
 RMS gradient           =       3.452E-03
 Gradient time:  CPU 22.13 s  wall 2.98 s
 Geometry Optimization Parameters
   NAtoms,    NIC,     NZ,  NCons,   NDum,   NFix, NCnnct, MaxDiis
        4      19       0       0       0       0       0       0

 Cartesian Hessian Update
 Hessian Updated using BFGS Update


** GEOMETRY OPTIMIZATION IN DELOCALIZED INTERNAL COORDINATES **
   Searching for a Minimum

   Optimization Cycle:   6

                       Coordinates (Angstroms)
     ATOM                X               Y               Z
      1  Cu       -0.1931946749   -0.0203445413   -0.0576319119
      2  H        -1.6719657469   -0.1470255045   -0.1759864819
      3  H         1.4142184849   -0.5075832926   -0.0249936138
      4  H         1.5137223255    0.2497889957   -0.2347412827
   Point Group: c1    Number of degrees of freedom:     6


   Energy is  -1641.933568696

 Hessian Updated using BFGS Update

  6 Hessian modes will be used to form the next step
  Hessian Eigenvalues:
     0.009625    0.021258    0.092519    0.125570    0.156153    0.302025

 Minimum Search - Taking Simple RFO Step
 Searching for Lamda that Minimizes Along All modes
 Value Taken    Lamda =  -0.00044775
 Step Taken.  Stepsize is  0.132611

                             Maximum     Tolerance    Cnvgd?
         Gradient           0.004502      0.000300      NO
         Displacement       0.103049      0.001200      NO
         Energy change     -0.000645      0.000001      NO


 New Cartesian Coordinates Obtained by Inverse Iteration

 Displacement from previous Coordinates is:  0.040888
 ----------------------------------------------------------------
             Standard Nuclear Orientation (Angstroms)
    I     Atom           X                Y                Z
 ----------------------------------------------------------------
    1      Cu     -0.1876355723    -0.0271737982    -0.0699471053
    2      H      -1.6827028434    -0.1427191391    -0.1699960297
    3      H       1.4207307287    -0.5063869054    -0.0227968335
    4      H       1.5123880756     0.2511155000    -0.2306133217
 ----------------------------------------------------------------
 Molecular Point Group                 C1    NOp =  1
 Largest Abelian Subgroup              C1    NOp =  1
 Nuclear Repulsion Energy =    29.2244910213 hartrees
 There are       16 alpha and       16 beta electrons
 Applying Cartesian multipole field
    Component          Value
    ---------          -----
     (2,0,0)        1.00000E-11
     (0,2,0)        2.00000E-10
     (0,0,2)       -3.00000E-11
 Nucleus-field energy     =     0.0000000005 hartrees
 Requested basis set is non-standard
 There are 24 shells and 60 basis functions
 A cutoff of  1.0D-11 yielded    300 shell pairs
 There are      1912 function pairs (      2404 Cartesian)
 Smallest overlap matrix eigenvalue = 1.11E-02
 Read the previous MOs as SCF guess

 -----------------------------------------------------------------------
  General SCF calculation program by
  Eric Jon Sundstrom, Paul Horn, Yuezhi Mao, Dmitri Zuev, Alec White,
  David Stuck, Shaama M.S., Shane Yost, Joonho Lee, David Small,
  Daniel Levine, Susi Lehtola, Hugh Burton, Evgeny Epifanovsky
 -----------------------------------------------------------------------
 Exchange:  B97M-V      Correlation:  B97M-V
 Using SG-2 standard quadrature grid
 Nonlocal Correlation:  VV10 with C = 0.0100 and b = 6.00
 Grid used for NLC:  SG-1 standard quadrature
 using 12 threads for integral computing
 -------------------------------------------------------
 OpenMP Integral computing Module                
 Release: version 1.0, May 2013, Q-Chem Inc. Pittsburgh 
 -------------------------------------------------------
 -------------------------------------------------------
 OpenMP BLAS3 based DFT computing Module                
 Release: version 1.0, May 2013, Q-Chem Inc. Pittsburgh 
 -------------------------------------------------------
 -------------------------------------------------------
 OpenMP BLAS3 based DFT computing Module                
 Release: version 1.0, May 2013, Q-Chem Inc. Pittsburgh 
 -------------------------------------------------------
 -------------------------------------------------------
 OpenMP BLAS3 based DFT computing Module                
 Release: version 1.0, May 2013, Q-Chem Inc. Pittsburgh 
 -------------------------------------------------------
 Nonlocal correlation = 0.134699483478
 A restricted SCF calculation will be
 performed using DIIS
 SCF converges when DIIS error is below 1.0e-08
 ---------------------------------------
  Cycle       Energy         DIIS error
 ---------------------------------------
 Nonlocal correlation = 1.347006586653e-01
    1   -1641.9338944169      3.05e-04  
 Nonlocal correlation = 1.346945958863e-01
    2   -1641.9339245482      1.36e-04  
 Nonlocal correlation = 1.347034301026e-01
    3   -1641.9339158066      2.95e-04  
 Nonlocal correlation = 1.347001155244e-01
    4   -1641.9339280677      9.00e-05  
 Nonlocal correlation = 1.347001765262e-01
    5   -1641.9339302182      3.04e-06  
 Nonlocal correlation = 1.347001805449e-01
    6   -1641.9339302225      1.66e-06  
 Nonlocal correlation = 1.347001871521e-01
    7   -1641.9339302233      2.73e-07  
 Nonlocal correlation = 1.347001854416e-01
    8   -1641.9339302233      8.16e-08  
    9   -1641.9339302233      7.61e-09  Convergence criterion met
 ---------------------------------------
 SCF time:   CPU 77.20s  wall 7.00s 
 SCF   energy in the final basis set =    -1641.9339302233
 
 --------------------------------------------------------------
 
                    Orbital Energies (a.u.)
 --------------------------------------------------------------
 
 Alpha MOs
 -- Occupied --
******* -38.888 -33.949 -33.947 -33.944  -4.352  -2.797  -2.789
 -2.785  -0.517  -0.282  -0.255  -0.248  -0.239  -0.238  -0.210
 -- Virtual --
 -0.052  -0.002   0.042   0.053   0.113   0.141   0.168   0.168
  0.219   0.263   0.318   0.418   0.529   0.557   0.806   0.866
  0.866   0.917   1.114   1.195   1.558   1.660   1.692   1.750
  1.887   2.045   2.073   2.099   2.156   2.630   3.150   3.205
  3.681   3.682   3.704   3.736   3.847   5.804   5.805   5.810
  5.811   5.813   5.828   5.889
 --------------------------------------------------------------
 
          Ground-State Mulliken Net Atomic Charges

     Atom                 Charge (a.u.)
  ----------------------------------------
      1 Cu                   -0.199563
      2 H                    -0.034510
      3 H                     0.104974
      4 H                     0.129099
  ----------------------------------------
  Sum of atomic charges =     0.000000

 -----------------------------------------------------------------
                    Cartesian Multipole Moments
 -----------------------------------------------------------------
    Charge (ESU x 10^10)
                -0.0000
    Dipole Moment (Debye)
         X       3.5659      Y       0.1176      Z       0.0642
       Tot       3.5684
    Quadrupole Moments (Debye-Ang)
        XX     -18.1982     XY      -0.3641     YY     -16.3897
        XZ      -0.4476     YZ      -0.1220     ZZ     -16.7895
    Octopole Moments (Debye-Ang^2)
       XXX      17.2185    XXY       0.8696    XYY       4.2452
       YYY       2.4195    XXZ       1.3406    XYZ      -0.1458
       YYZ       1.4115    XZZ       3.6324    YZZ       0.8904
       ZZZ       4.2990
    Hexadecapole Moments (Debye-Ang^3)
      XXXX     -74.7407   XXXY      -0.8815   XXYY     -15.7407
      XYYY      -0.9226   YYYY     -22.9316   XXXZ      -1.8254
      XXYZ      -0.3127   XYYZ      -0.4030   YYYZ      -0.0953
      XXZZ     -16.6146   XYZZ      -0.1666   YYZZ      -7.5353
      XZZZ      -1.1014   YZZZ      -0.0934   ZZZZ     -22.1725
 -----------------------------------------------------------------
 Calculating analytic gradient of the SCF energy
 Gradient of SCF Energy
            1           2           3           4
    1  -0.0030753   0.0022954  -0.0011839   0.0019638
    2   0.0030796  -0.0019012   0.0018710  -0.0030493
    3   0.0042341  -0.0020249  -0.0013003  -0.0009088
 Max gradient component =       4.234E-03
 RMS gradient           =       2.423E-03
 Gradient time:  CPU 20.53 s  wall 2.75 s
 Geometry Optimization Parameters
   NAtoms,    NIC,     NZ,  NCons,   NDum,   NFix, NCnnct, MaxDiis
        4      19       0       0       0       0       0       0

 Cartesian Hessian Update
 Hessian Updated using BFGS Update


** GEOMETRY OPTIMIZATION IN DELOCALIZED INTERNAL COORDINATES **
   Searching for a Minimum

   Optimization Cycle:   7

                       Coordinates (Angstroms)
     ATOM                X               Y               Z
      1  Cu       -0.1876355723   -0.0271737982   -0.0699471053
      2  H        -1.6827028434   -0.1427191391   -0.1699960297
      3  H         1.4207307287   -0.5063869054   -0.0227968335
      4  H         1.5123880756    0.2511155000   -0.2306133217
   Point Group: c1    Number of degrees of freedom:     6


   Energy is  -1641.933930223

 Hessian Updated using BFGS Update

  6 Hessian modes will be used to form the next step
  Hessian Eigenvalues:
     0.004055    0.019033    0.091944    0.128830    0.151096    0.313295

 Minimum Search - Taking Simple RFO Step
 Searching for Lamda that Minimizes Along All modes
 Value Taken    Lamda =  -0.00066622
 Calculated Step too Large.  Step scaled by  0.839108
 Step Taken.  Stepsize is  0.300000

                             Maximum     Tolerance    Cnvgd?
         Gradient           0.001728      0.000300      NO
         Displacement       0.251836      0.001200      NO
         Energy change     -0.000362      0.000001      NO


 New Cartesian Coordinates Obtained by Inverse Iteration

 Displacement from previous Coordinates is:  0.070532
 ----------------------------------------------------------------
             Standard Nuclear Orientation (Angstroms)
    I     Atom           X                Y                Z
 ----------------------------------------------------------------
    1      Cu     -0.1805159988    -0.0442061554    -0.0914639140
    2      H      -1.6892201906    -0.1314209615    -0.1595930134
    3      H       1.4311253782    -0.5046157796    -0.0180696000
    4      H       1.5013911999     0.2550785539    -0.2242267629
 ----------------------------------------------------------------
 Molecular Point Group                 C1    NOp =  1
 Largest Abelian Subgroup              C1    NOp =  1
 Nuclear Repulsion Energy =    29.2500445257 hartrees
 There are       16 alpha and       16 beta electrons
 Applying Cartesian multipole field
    Component          Value
    ---------          -----
     (2,0,0)        1.00000E-11
     (0,2,0)        2.00000E-10
     (0,0,2)       -3.00000E-11
 Nucleus-field energy     =     0.0000000005 hartrees
 Requested basis set is non-standard
 There are 24 shells and 60 basis functions
 A cutoff of  1.0D-11 yielded    300 shell pairs
 There are      1912 function pairs (      2404 Cartesian)
 Smallest overlap matrix eigenvalue = 1.06E-02
 Read the previous MOs as SCF guess

 -----------------------------------------------------------------------
  General SCF calculation program by
  Eric Jon Sundstrom, Paul Horn, Yuezhi Mao, Dmitri Zuev, Alec White,
  David Stuck, Shaama M.S., Shane Yost, Joonho Lee, David Small,
  Daniel Levine, Susi Lehtola, Hugh Burton, Evgeny Epifanovsky
 -----------------------------------------------------------------------
 Exchange:  B97M-V      Correlation:  B97M-V
 Using SG-2 standard quadrature grid
 Nonlocal Correlation:  VV10 with C = 0.0100 and b = 6.00
 Grid used for NLC:  SG-1 standard quadrature
 using 12 threads for integral computing
 -------------------------------------------------------
 OpenMP Integral computing Module                
 Release: version 1.0, May 2013, Q-Chem Inc. Pittsburgh 
 -------------------------------------------------------
 -------------------------------------------------------
 OpenMP BLAS3 based DFT computing Module                
 Release: version 1.0, May 2013, Q-Chem Inc. Pittsburgh 
 -------------------------------------------------------
 -------------------------------------------------------
 OpenMP BLAS3 based DFT computing Module                
 Release: version 1.0, May 2013, Q-Chem Inc. Pittsburgh 
 -------------------------------------------------------
 -------------------------------------------------------
 OpenMP BLAS3 based DFT computing Module                
 Release: version 1.0, May 2013, Q-Chem Inc. Pittsburgh 
 -------------------------------------------------------
 Nonlocal correlation = 0.134695693263
 A restricted SCF calculation will be
 performed using DIIS
 SCF converges when DIIS error is below 1.0e-08
 ---------------------------------------
  Cycle       Energy         DIIS error
 ---------------------------------------
 Nonlocal correlation = 1.346974758632e-01
    1   -1641.9342670752      4.90e-04  
 Nonlocal correlation = 1.346885073032e-01
    2   -1641.9343470193      1.74e-04  
 Nonlocal correlation = 1.347006305540e-01
    3   -1641.9343279120      4.15e-04  
 Nonlocal correlation = 1.346963374569e-01
    4   -1641.9343531520      1.25e-04  
 Nonlocal correlation = 1.346965125300e-01
    5   -1641.9343572005      3.24e-06  
 Nonlocal correlation = 1.346964774260e-01
    6   -1641.9343572074      1.51e-06  
 Nonlocal correlation = 1.346964837122e-01
    7   -1641.9343572086      3.04e-07  
 Nonlocal correlation = 1.346964816685e-01
    8   -1641.9343572086      9.60e-08  
 Nonlocal correlation = 1.346964822089e-01
    9   -1641.9343572086      1.76e-08  
   10   -1641.9343572086      4.02e-09  Convergence criterion met
 ---------------------------------------
 SCF time:   CPU 83.62s  wall 8.00s 
 SCF   energy in the final basis set =    -1641.9343572086
 
 --------------------------------------------------------------
 
                    Orbital Energies (a.u.)
 --------------------------------------------------------------
 
 Alpha MOs
 -- Occupied --
******* -38.889 -33.949 -33.948 -33.945  -4.353  -2.797  -2.790
 -2.785  -0.519  -0.280  -0.256  -0.249  -0.239  -0.239  -0.211
 -- Virtual --
 -0.052  -0.000   0.043   0.051   0.113   0.142   0.168   0.168
  0.219   0.263   0.320   0.418   0.527   0.556   0.804   0.866
  0.866   0.918   1.123   1.192   1.556   1.667   1.692   1.740
  1.886   2.063   2.072   2.102   2.160   2.618   3.168   3.208
  3.680   3.682   3.703   3.737   3.843   5.804   5.804   5.809
  5.810   5.811   5.827   5.885
 --------------------------------------------------------------
 
          Ground-State Mulliken Net Atomic Charges

     Atom                 Charge (a.u.)
  ----------------------------------------
      1 Cu                   -0.219022
      2 H                    -0.022935
      3 H                     0.110128
      4 H                     0.131829
  ----------------------------------------
  Sum of atomic charges =     0.000000

 -----------------------------------------------------------------
                    Cartesian Multipole Moments
 -----------------------------------------------------------------
    Charge (ESU x 10^10)
                 0.0000
    Dipole Moment (Debye)
         X       3.5837      Y       0.0850      Z       0.0479
       Tot       3.5851
    Quadrupole Moments (Debye-Ang)
        XX     -18.2103     XY      -0.3692     YY     -16.3957
        XZ      -0.4533     YZ      -0.1229     ZZ     -16.7939
    Octopole Moments (Debye-Ang^2)
       XXX      17.0627    XXY       1.0829    XYY       4.1890
       YYY       3.0132    XXZ       1.7118    XYZ      -0.1425
       YYZ       1.6769    XZZ       3.5680    YZZ       1.0853
       ZZZ       5.0877
    Hexadecapole Moments (Debye-Ang^3)
      XXXX     -74.7680   XXXY      -1.0518   XXYY     -15.7988
      XYYY      -0.9778   YYYY     -23.0721   XXXZ      -2.0260
      XXYZ      -0.3469   XYYZ      -0.4580   YYYZ      -0.1668
      XXZZ     -16.7278   XYZZ      -0.1931   YYZZ      -7.6058
      XZZZ      -1.2758   YZZZ      -0.1623   ZZZZ     -22.4580
 -----------------------------------------------------------------
 Calculating analytic gradient of the SCF energy
 Gradient of SCF Energy
            1           2           3           4
    1   0.0000236  -0.0003435  -0.0008561   0.0011760
    2   0.0025868  -0.0015994   0.0026367  -0.0036241
    3   0.0027974  -0.0013774  -0.0011837  -0.0002364
 Max gradient component =       3.624E-03
 RMS gradient           =       1.887E-03
 Gradient time:  CPU 21.60 s  wall 2.93 s
 Geometry Optimization Parameters
   NAtoms,    NIC,     NZ,  NCons,   NDum,   NFix, NCnnct, MaxDiis
        4      19       0       0       0       0       0       0

 Cartesian Hessian Update
 Hessian Updated using BFGS Update


** GEOMETRY OPTIMIZATION IN DELOCALIZED INTERNAL COORDINATES **
   Searching for a Minimum

   Optimization Cycle:   8

                       Coordinates (Angstroms)
     ATOM                X               Y               Z
      1  Cu       -0.1805159988   -0.0442061554   -0.0914639140
      2  H        -1.6892201906   -0.1314209615   -0.1595930134
      3  H         1.4311253782   -0.5046157796   -0.0180696000
      4  H         1.5013911999    0.2550785539   -0.2242267629
   Point Group: c1    Number of degrees of freedom:     6


   Energy is  -1641.934357209

 Hessian Updated using BFGS Update

  6 Hessian modes will be used to form the next step
  Hessian Eigenvalues:
     0.001944    0.022179    0.091875    0.126709    0.163242    0.322117

 Minimum Search - Taking Simple RFO Step
 Searching for Lamda that Minimizes Along All modes
 Value Taken    Lamda =  -0.00052826
 Calculated Step too Large.  Step scaled by  0.666973
 Step Taken.  Stepsize is  0.300000

                             Maximum     Tolerance    Cnvgd?
         Gradient           0.001785      0.000300      NO
         Displacement       0.270690      0.001200      NO
         Energy change     -0.000427      0.000001      NO


 New Cartesian Coordinates Obtained by Inverse Iteration

 Displacement from previous Coordinates is:  0.094132
 ----------------------------------------------------------------
             Standard Nuclear Orientation (Angstroms)
    I     Atom           X                Y                Z
 ----------------------------------------------------------------
    1      Cu     -0.1756208781    -0.0787102515    -0.1027279298
    2      H      -1.6913884376    -0.1096388000    -0.1548688244
    3      H       1.4458384396    -0.5005429160    -0.0132123842
    4      H       1.4839512648     0.2637276248    -0.2225441519
 ----------------------------------------------------------------
 Molecular Point Group                 C1    NOp =  1
 Largest Abelian Subgroup              C1    NOp =  1
 Nuclear Repulsion Energy =    29.2961384345 hartrees
 There are       16 alpha and       16 beta electrons
 Applying Cartesian multipole field
    Component          Value
    ---------          -----
     (2,0,0)        1.00000E-11
     (0,2,0)        2.00000E-10
     (0,0,2)       -3.00000E-11
 Nucleus-field energy     =     0.0000000006 hartrees
 Requested basis set is non-standard
 There are 24 shells and 60 basis functions
 A cutoff of  1.0D-11 yielded    300 shell pairs
 There are      1912 function pairs (      2404 Cartesian)
 Smallest overlap matrix eigenvalue = 1.04E-02
 Read the previous MOs as SCF guess

 -----------------------------------------------------------------------
  General SCF calculation program by
  Eric Jon Sundstrom, Paul Horn, Yuezhi Mao, Dmitri Zuev, Alec White,
  David Stuck, Shaama M.S., Shane Yost, Joonho Lee, David Small,
  Daniel Levine, Susi Lehtola, Hugh Burton, Evgeny Epifanovsky
 -----------------------------------------------------------------------
 Exchange:  B97M-V      Correlation:  B97M-V
 Using SG-2 standard quadrature grid
 Nonlocal Correlation:  VV10 with C = 0.0100 and b = 6.00
 Grid used for NLC:  SG-1 standard quadrature
 using 12 threads for integral computing
 -------------------------------------------------------
 OpenMP Integral computing Module                
 Release: version 1.0, May 2013, Q-Chem Inc. Pittsburgh 
 -------------------------------------------------------
 -------------------------------------------------------
 OpenMP BLAS3 based DFT computing Module                
 Release: version 1.0, May 2013, Q-Chem Inc. Pittsburgh 
 -------------------------------------------------------
 -------------------------------------------------------
 OpenMP BLAS3 based DFT computing Module                
 Release: version 1.0, May 2013, Q-Chem Inc. Pittsburgh 
 -------------------------------------------------------
 -------------------------------------------------------
 OpenMP BLAS3 based DFT computing Module                
 Release: version 1.0, May 2013, Q-Chem Inc. Pittsburgh 
 -------------------------------------------------------
 Nonlocal correlation = 0.134688263083
 A restricted SCF calculation will be
 performed using DIIS
 SCF converges when DIIS error is below 1.0e-08
 ---------------------------------------
  Cycle       Energy         DIIS error
 ---------------------------------------
 Nonlocal correlation = 1.346883361266e-01
    1   -1641.9345111138      6.38e-04  
 Nonlocal correlation = 1.346793309805e-01
    2   -1641.9346491768      1.82e-04  
 Nonlocal correlation = 1.346922290280e-01
    3   -1641.9346331766      3.98e-04  
 Nonlocal correlation = 1.346873147410e-01
    4   -1641.9346569209      1.79e-04  
 Nonlocal correlation = 1.346873538998e-01
    5   -1641.9346639011      3.94e-06  
 Nonlocal correlation = 1.346873082746e-01
    6   -1641.9346639101      1.08e-06  
 Nonlocal correlation = 1.346873218117e-01
    7   -1641.9346639108      3.96e-07  
 Nonlocal correlation = 1.346873205182e-01
    8   -1641.9346639109      6.11e-08  
 Nonlocal correlation = 1.346873214037e-01
    9   -1641.9346639109      1.77e-08  
   10   -1641.9346639109      3.33e-09  Convergence criterion met
 ---------------------------------------
 SCF time:   CPU 86.21s  wall 8.00s 
 SCF   energy in the final basis set =    -1641.9346639109
 
 --------------------------------------------------------------
 
                    Orbital Energies (a.u.)
 --------------------------------------------------------------
 
 Alpha MOs
 -- Occupied --
******* -38.890 -33.950 -33.949 -33.946  -4.353  -2.798  -2.791
 -2.786  -0.519  -0.280  -0.258  -0.249  -0.240  -0.240  -0.211
 -- Virtual --
 -0.053   0.001   0.044   0.049   0.113   0.142   0.168   0.168
  0.219   0.264   0.322   0.418   0.524   0.556   0.803   0.866
  0.866   0.919   1.131   1.191   1.554   1.673   1.685   1.734
  1.883   2.064   2.091   2.097   2.163   2.612   3.169   3.209
  3.680   3.681   3.702   3.737   3.842   5.803   5.804   5.807
  5.809   5.810   5.826   5.884
 --------------------------------------------------------------
 
          Ground-State Mulliken Net Atomic Charges

     Atom                 Charge (a.u.)
  ----------------------------------------
      1 Cu                   -0.233549
      2 H                    -0.015235
      3 H                     0.120106
      4 H                     0.128678
  ----------------------------------------
  Sum of atomic charges =     0.000000

 -----------------------------------------------------------------
                    Cartesian Multipole Moments
 -----------------------------------------------------------------
    Charge (ESU x 10^10)
                 0.0000
    Dipole Moment (Debye)
[...]
	def2-tzvp
	****
	H 2
	def2-svp
	****
	H 3
	def2-svp
	****
	H 4
	def2-svp
	****
$end



--------------------------------------------------------------
 ----------------------------------------------------------------
             Standard Nuclear Orientation (Angstroms)
    I     Atom           X                Y                Z
 ----------------------------------------------------------------
    1      Cu     -0.0552473427    -0.0000545429     0.0001717877
    2      H      -1.5662518003     0.0006906384    -0.0025924868
    3      H       1.5847354501    -0.3985119833    -0.0011985973
    4      H       1.5836892893     0.3994030888    -0.0011907600
 ----------------------------------------------------------------
 Molecular Point Group                 C1    NOp =  1
 Largest Abelian Subgroup              C1    NOp =  1
 Nuclear Repulsion Energy =    29.3428273440 hartrees
 There are       16 alpha and       16 beta electrons

 Q-Chem warning in module forms1/BasisType.C, line 1685:

 Setting pure/cartesian flag to 2111 for general basis


 Requested basis set is non-standard
 There are 24 shells and 60 basis functions

 Total QAlloc Memory Limit   2000 MB
 Mega-Array Size       188 MB
 MEM_STATIC part       192 MB

                       Distance Matrix (Angstroms)
             Cu(  1)   H (  2)   H (  3)
   H (  2)  1.511007
   H (  3)  1.687695  3.176175
   H (  4)  1.686915  3.175075  0.797916
 
 A cutoff of  1.0D-08 yielded    300 shell pairs
 There are      1912 function pairs (      2404 Cartesian)
 
 -------------------------------------------------------
 OpenMP Integral Computing Module                       
 Release: version 1.0, May 2013, Q-Chem Inc. Pittsburgh 
 -------------------------------------------------------
 Integral Job Info:
 Integral job number is                      11
 Integral operator is                         1
 short-range coefficients                     0
 long-range coefficients              100000000
 Omega coefficients                           0
 if combine SR and LR in K                    0
 Integral screening is                        0
 Integral computing path is                   2
 max size of driver memory is            800000
 size of driver memory is                776718
 size of scratch memory is             29734184
 max col of scratch BK array              10000
 max len of scratch array in speh3          662
 max len of scratch index in speh4           32
 max int batch size is                      520
 min int batch size is                       52
 fixed nKL is                                42
 max L of basis functions is                  3
 order of int derivative is                   0
 number of shells is                         24
 number of basis is                          67
 number of cartesian basis is                67
 number of contracted shell pairs           300
 number of primitive shell pairs           1277
 maxK2 (contraction) of shell pair           64
 max number of K2 of shell pair               1
 max number of CS2 of shell pair             34
 max number of PS2 of shell pair             64
 mem total for path MDJ                  529580
 -------------------------------------------------------
 Smallest overlap matrix eigenvalue = 1.01E-02

 Scale SEOQF with 1.000000e-01/1.000000e+00/1.000000e-01

 Standard Electronic Orientation quadrupole field applied
 Nucleus-field energy     =     0.0000000005 hartrees
 Guess MOs from converged MOs on fragments

 Q-Chem warning in module gesman/FrgmGuess.C, line 225:

 Cannot create fragment directory


-----------------------------------------------------------------
 SCF on fragment 1 out of 2
/global/home/groups-sw/mhg/qchem_ymao/qchem_ymao_debug/exe/qcprog.exe /scratch/romitchak/CuH-H2_b97m-v.in20180510171729/Frg1.input /scratch/romitchak/CuH-H2_b97m-v.in20180510171729/Frg1/ > /dev/null 

 Q-Chem warning in module gesman/FrgmGuess.C, line 225:

 Cannot create fragment directory

 SCF on fragment 2 out of 2
/global/home/groups-sw/mhg/qchem_ymao/qchem_ymao_debug/exe/qcprog.exe /scratch/romitchak/CuH-H2_b97m-v.in20180510171729/Frg2.input /scratch/romitchak/CuH-H2_b97m-v.in20180510171729/Frg2/ > /dev/null 
-----------------------------------------------------------------
 Done with SCF on isolated fragments
-----------------------------------------------------------------

 User-specified occupied guess orbitals will be used
 A restricted Kohn-Sham SCF calculation will be
 performed using Pulay DIIS extrapolation
 Locally projected approximation of Stoll
 with single Roothaan step correction
 Exchange:  B97M-V      Correlation:  B97M-V
 Using SG-2 standard quadrature grid
 Nonlocal Correlation:  VV10 with C = 0.0100 and b = 6.00
 Grid used for NLC:  SG-1 standard quadrature
 SCF converges when DIIS error is below 1.0E-05
 using 12 threads for integral computing
 -------------------------------------------------------
 OpenMP Integral computing Module                
 Release: version 1.0, May 2013, Q-Chem Inc. Pittsburgh 
 -------------------------------------------------------
 -------------------------------------------------------
 OpenMP BLAS3 based DFT computing Module                
 Release: version 1.0, May 2013, Q-Chem Inc. Pittsburgh 
 -------------------------------------------------------
 -------------------------------------------------------
 OpenMP BLAS3 based DFT computing Module                
 Release: version 1.0, May 2013, Q-Chem Inc. Pittsburgh 
 -------------------------------------------------------
 -------------------------------------------------------
 OpenMP BLAS3 based DFT computing Module                
 Release: version 1.0, May 2013, Q-Chem Inc. Pittsburgh 
 -------------------------------------------------------
 ---------------------------------------
  Cycle       Energy         DIIS Error
 ---------------------------------------
    1   -1641.8968213982      7.39E-03
    2   -1641.9041731889      4.99E-03
    3   -1641.9004605695      8.84E-03
    4   -1641.9068911834      9.25E-04
    5   -1641.9070079402      3.85E-04
    6   -1641.9070438854      2.27E-04
    7   -1641.9070516551      1.81E-04
    8   -1641.9070554690      1.35E-04
    9   -1641.9070564703      1.11E-04
   10   -1641.9070572015      7.78E-05
   11   -1641.9070574064      6.12E-05
   12   -1641.9070575019      4.81E-05
   13   -1641.9070575489      3.79E-05
   14   -1641.9070575738      2.99E-05
   15   -1641.9070575876      2.36E-05
   16   -1641.9070575957      1.86E-05
   17   -1641.9070576005      1.47E-05
   18   -1641.9070576034      1.16E-05
Last iteration: RS correction
SCF MI energy: -1641.9070576052
SCF MI(RS) energy: -1641.9364760520
   19   -1641.9364760520      9.19E-06 Convergence criterion met
 ---------------------------------------
 SCF time:  CPU 174.05 s  wall 21.91 s
-----------------------------------------------------
 full SCF correction to the locally projected method
-----------------------------------------------------
 A restricted Kohn-Sham SCF calculation will be
 performed using Pulay DIIS extrapolation
 Exchange:  B97M-V      Correlation:  B97M-V
 Using SG-2 standard quadrature grid
 Nonlocal Correlation:  VV10 with C = 0.0100 and b = 6.00
 Grid used for NLC:  SG-1 standard quadrature
 SCF converges when DIIS error is below 1.0E-05
 using 12 threads for integral computing
 -------------------------------------------------------
 OpenMP Integral computing Module                
 Release: version 1.0, May 2013, Q-Chem Inc. Pittsburgh 
 -------------------------------------------------------
 -------------------------------------------------------
 OpenMP BLAS3 based DFT computing Module                
 Release: version 1.0, May 2013, Q-Chem Inc. Pittsburgh 
 -------------------------------------------------------
 -------------------------------------------------------
 OpenMP BLAS3 based DFT computing Module                
 Release: version 1.0, May 2013, Q-Chem Inc. Pittsburgh 
 -------------------------------------------------------
 -------------------------------------------------------
 OpenMP BLAS3 based DFT computing Module                
 Release: version 1.0, May 2013, Q-Chem Inc. Pittsburgh 
 -------------------------------------------------------
 ---------------------------------------
  Cycle       Energy         DIIS Error
 ---------------------------------------
    1   -1641.9317158283      4.02E-03
    2   -1641.9000648550      1.47E-02
    3   -1641.9346847327      6.30E-04
    4   -1641.9348608554      1.69E-04
    5   -1641.9348771215      1.98E-05
    6   -1641.9348774203      4.16E-06 Convergence criterion met
 ---------------------------------------
 SCF time:  CPU 48.70 s  wall 4.80 s

-----------------------------------------------------------------
 RS CP correction for fragment 1 out of 2
/global/home/groups-sw/mhg/qchem_ymao/qchem_ymao_debug/exe/qcprog.exe /scratch/romitchak/CuH-H2_b97m-v.in20180510171729/Frg1.input /scratch/romitchak/CuH-H2_b97m-v.in20180510171729/Frg1ARSBSSE/ > /dev/null 
 RS CP correction for fragment 2 out of 2
/global/home/groups-sw/mhg/qchem_ymao/qchem_ymao_debug/exe/qcprog.exe /scratch/romitchak/CuH-H2_b97m-v.in20180510171729/Frg2.input /scratch/romitchak/CuH-H2_b97m-v.in20180510171729/Frg2ARSBSSE/ > /dev/null 
-----------------------------------------------------------------
 Done with counterpoise correction on fragments
-----------------------------------------------------------------


-----------------------------------------------------------------
 SCF CP correction for fragment 1 out of 2
/global/home/groups-sw/mhg/qchem_ymao/qchem_ymao_debug/exe/qcprog.exe /scratch/romitchak/CuH-H2_b97m-v.in20180510171729/Frg1.input /scratch/romitchak/CuH-H2_b97m-v.in20180510171729/Frg1BSSE/ > /dev/null 
 SCF CP correction for fragment 2 out of 2
/global/home/groups-sw/mhg/qchem_ymao/qchem_ymao_debug/exe/qcprog.exe /scratch/romitchak/CuH-H2_b97m-v.in20180510171729/Frg2.input /scratch/romitchak/CuH-H2_b97m-v.in20180510171729/Frg2BSSE/ > /dev/null 
-----------------------------------------------------------------
 Done with counterpoise correction on fragments
-----------------------------------------------------------------

 SCF   energy in the final basis set = -1641.93487742
 Total energy in the final basis set = -1641.93487742
 
 --------------------------------------------------------------
 
                    Orbital Energies (a.u.)
 --------------------------------------------------------------
 
 Alpha MOs
 -- Occupied --
******* -38.890 -33.951 -33.949 -33.946  -4.354  -2.799  -2.791
 -2.786  -0.519  -0.280  -0.258  -0.250  -0.240  -0.240  -0.211
 -- Virtual --
 -0.053   0.003   0.045   0.046   0.113   0.142   0.168   0.168
  0.219   0.264   0.322   0.420   0.522   0.557   0.802   0.866
  0.866   0.918   1.135   1.190   1.554   1.678   1.679   1.732
  1.880   2.063   2.094   2.096   2.162   2.622   3.156   3.211
  3.680   3.681   3.702   3.736   3.843   5.803   5.804   5.807
  5.809   5.810   5.826   5.886
 --------------------------------------------------------------
 
          Ground-State Mulliken Net Atomic Charges

     Atom                 Charge (a.u.)
  ----------------------------------------
      1 Cu                   -0.241653
      2 H                    -0.010243
      3 H                     0.126059
      4 H                     0.125837
  ----------------------------------------
  Sum of atomic charges =    -0.000000

 -----------------------------------------------------------------
                    Cartesian Multipole Moments
 -----------------------------------------------------------------
    Charge (ESU x 10^10)
                -0.0000
    Dipole Moment (Debye)
         X       3.5889      Y      -0.0011      Z       0.0022
       Tot       3.5889
    Quadrupole Moments (Debye-Ang)
        XX     -17.3412     XY       0.0010     YY     -16.3649
        XZ      -0.0044     YZ       0.0000     ZZ     -16.8247
    Octopole Moments (Debye-Ang^2)
       XXX      10.4370    XXY      -0.0025    XYY       2.1852
       YYY      -0.0039    XXZ      -0.0005    XYZ       0.0000
       YYZ       0.0036    XZZ       1.3670    YZZ      -0.0015
       ZZZ       0.0127
    Hexadecapole Moments (Debye-Ang^3)
      XXXX     -67.9456   XXXY       0.0002   XXYY     -14.8818
      XYYY       0.0043   YYYY     -22.8270   XXXZ      -0.0142
      XXYZ       0.0000   XYYZ      -0.0043   YYYZ       0.0000
      XXZZ     -16.0633   XYZZ       0.0010   YYZZ      -7.3806
      XZZZ      -0.0091   YZZZ       0.0000   ZZZZ     -21.3452
 -----------------------------------------------------------------

 ---------------------------------------------------------------------
 *                   Energy decomposition analysis                   *
 *  R.Z.Khaliullin, E.A.Cobar, R.C.Lochan, A.T.Bell, M.Head-Gordon   *
 *              J. Phys. Chem. A, 2007, 111, 8753-8765.              *
 ---------------------------------------------------------------------
   Fragment           E(TOTAL)      E(RS CP-CORR)     E(SCF CP-CORR)
 ---------------------------------------------------------------------
          1   -1640.7464000265   -1640.7472445232   -1640.7472855293
          2      -1.1644551761      -1.1650410525      -1.1650666675
 ---------------------------------------------------------------------
   initial    -1641.8968213982
    SCF MI    -1641.9070576052
        RS    -1641.9364760520
       SCF    -1641.9348774203
 ---------------------------------------------------------------------
                                       Energy term         DE, kJ/mol
 ---------------------------------------------------------------------
                            Frozen Density ( FRZ )           36.84619
                              Polarization ( POL )          -26.87548
                       RS Delocalization ( P-DEL )          -77.23905
       RS Basis set superposition error ( P-BSSE )            3.75549
      RS Charge-transfer ( P-CT = P-DEL + P-BSSE )          -73.48356
                      SCF Delocalization ( V-DEL )          -73.04179
      SCF Basis set superposition error ( V-BSSE )            3.93040
     SCF Charge-transfer ( V-CT = V-DEL + V-BSSE )          -69.11139
 ---------------------------------------------------------------------
             RS Total ( P-TOT = FRZ + POL + P-CT )          -63.51285
            SCF Total ( V-TOT = FRZ + POL + V-CT )          -59.14068
    Higher order relaxation ( HO = V-TOT - P-TOT )            4.37217

 *-------------------------------------------------------------------* 
 *      Energy decomposition of the delocalization term, kJ/mol      * 
 *-------------------------------------------------------------------* 
                DEL from fragment(row) to fragment(col)                
  -------------------------------------------------------------------    
             1           2
    1    -0.00073   -44.56795
    2   -32.67048     0.00000
  -------------------------------------------------------------------  
                BSSE from fragment(row) to fragment(col)               
                  Grid superposition error: 0.01193
  -------------------------------------------------------------------    
             1           2
    1    -0.00731     2.21345
    2     1.53747    -0.00004
  -------------------------------------------------------------------  
                 CT from fragment(row) to fragment(col)                
                  Grid superposition error: 0.01203
  -------------------------------------------------------------------    
             1           2
    1    -0.00804   -42.35450
    2   -31.13301    -0.00004
 ---------------------------------------------------------------------


 --------------------------------------------------------------------- 
 *                     Charge transfer analysis                      * 
 *             R.Z.Khaliullin, A.T. Bell, M.Head-Gordon              * 
 *                J. Chem. Phys., 2008, 128, 184112                  * 
 *-------------------------------------------------------------------* 
                       Fragment population, a.u.                       
 --------------------------------------------------------------------- 
    Method   Fragment         Occ         Vir     Occ+Vir    Isolated
 --------------------------------------------------------------------- 
    SCF MI          1   30.000000   -0.000000   30.000000   30.000000
                    2    2.000000    0.000000    2.000000    2.000000
 --------------------------------------------------------------------- 
        RS          1   29.956725    0.017157   29.973882   30.000000
                    2    1.981444    0.044674    2.026118    2.000000
 --------------------------------------------------------------------- 
       SCF          1   29.968893    0.017440   29.986333   30.000000
                    2    1.981518    0.032149    2.013667    2.000000
 --------------------------------------------------------------------- 
   BSSE RS          1   29.998646    0.000143   29.998789   30.000000
                    2    1.999358    0.001853    2.001211    2.000000
 --------------------------------------------------------------------- 
  BSSE SCF          1   29.998476    0.000170   29.998646   30.000000
                    2    1.999304    0.002050    2.001354    2.000000
 --------------------------------------------------------------------- 
                           Total electron transfer            DQ, me-
 --------------------------------------------------------------------- 
                                 RS Delocalization          61.831290
                                SCF Delocalization          49.589370
                  RS Basis set superposition error           1.996126
                 SCF Basis set superposition error           2.219790
 --------------------------------------------------------------------- 
                                RS Charge-transfer          59.835164
                               SCF Charge-transfer          47.369580
              Higher order relaxation ( SCF - RS )         -12.465584


 *-------------------------------------------------------------------* 
 *      Decomposition of the total RS charge-transfer term, me-      * 
 *-------------------------------------------------------------------* 
           Delocalization from fragment(row) to fragment(col)          
  -------------------------------------------------------------------    
             1           2
    1    -2.71292    45.98834
    2    19.87039    -1.31452
  -------------------------------------------------------------------  
                BSSE from fragment(row) to fragment(col)               
  -------------------------------------------------------------------    
             1           2
    1    -0.64275     1.99665
    2     0.78614    -0.14391
  -------------------------------------------------------------------  
         Electron transfer from fragment(row) to fragment(col)         
  -------------------------------------------------------------------    
             1           2
    1    -2.07017    43.99169
    2    19.08425    -1.17062
  -------------------------------------------------------------------  

Archival summary:
1\1\n0061.mhg0\SP\ProcedureUnspecified\BasisUnspecified\u13\romitcha\ThuMay1017:28:132018ThuMay1017:28:132018\0\\#,ProcedureUnspecified,BasisUnspecified,\\0,1\Cu\H,1,1.51101\H,1,1.68691,2,166.273\H,3,0.797916,1,76.3775,2,-179.357,0\\\@

 Total job time:  67.52s(wall), 230.10s(cpu) 
 Thu May 10 17:28:13 2018

        *************************************************************
        *                                                           *
        *  Thank you very much for using Q-Chem.  Have a nice day.  *
        *                                                           *
        *************************************************************


